 TITLE="INITITAL DISTRIBUTION of WALL PARTICLES"
 VARIABLES="X","Y","VX","VY","density","pressure"
  ZONE I=803, F=POINT
